# vtk DataFile Version 5.1
vtk output
ASCII
DATASET UNSTRUCTURED_GRID
POINTS 566 double
586.561 60 107.644 586.561 60 113.28422 594 60 113.28422 
594 60 106.766 586.72628798 60.343224021 107.644 587.09768669 60.427993353 107.644 
587.39552533 60.190474961 107.644 587.39552533 59.809525039 107.644 587.09768669 59.572006647 107.644 
586.72628798 59.656775979 107.644 586.561 60 112.81420167 586.561 60 112.34418333 
586.561 60 111.874165 586.561 60 111.40414667 586.561 60 110.93412833 
586.561 60 110.46411 586.561 60 109.99409167 586.561 60 109.52407333 
586.561 60 109.054055 586.561 60 108.58403667 586.561 60 108.11401833 
586.72628798 60.343224021 113.28422 587.09768669 60.427993353 113.28422 587.39552533 60.190474961 113.28422 
587.39552533 59.809525039 113.28422 587.09768669 59.572006647 113.28422 586.72628798 59.656775979 113.28422 
593.71645082 61.972127898 113.28422 592.88877473 63.784485722 113.28422 591.58402514 65.29024702 113.28422 
589.90790509 66.367423967 113.28422 587.99620387 66.928750093 113.28422 586.00379613 66.928750093 113.28422 
584.09209491 66.367423967 113.28422 582.41597486 65.29024702 113.28422 581.11122527 63.784485722 113.28422 
580.28354918 61.972127898 113.28422 580 60 113.28422 580.28354918 58.027872102 113.28422 
581.11122527 56.215514278 113.28422 582.41597486 54.70975298 113.28422 584.09209491 53.632576033 113.28422 
586.00379613 53.071249907 113.28422 587.99620387 53.071249907 113.28422 589.90790509 53.632576033 113.28422 
591.58402514 54.70975298 113.28422 592.88877473 56.215514278 113.28422 593.71645082 58.027872102 113.28422 
594 60 108.395555 594 60 110.02511 594 60 111.654665 
593.71645082 61.972127898 106.766 592.88877473 63.784485722 106.766 591.58402514 65.29024702 106.766 
589.90790509 66.367423967 106.766 587.99620387 66.928750093 106.766 586.00379613 66.928750093 106.766 
584.09209491 66.367423967 106.766 582.41597486 65.29024702 106.766 581.11122527 63.784485722 106.766 
580.28354918 61.972127898 106.766 580 60 106.766 580.28354918 58.027872102 106.766 
581.11122527 56.215514278 106.766 582.41597486 54.70975298 106.766 584.09209491 53.632576033 106.766 
586.00379613 53.071249907 106.766 587.99620387 53.071249907 106.766 589.90790509 53.632576033 106.766 
591.58402514 54.70975298 106.766 592.88877473 56.215514278 106.766 593.71645082 58.027872102 106.766 
586.74312319 59.644000974 110.69194769 586.75593526 60.364901905 109.32873672 586.74554366 59.642266897 108.82027686 
586.7523302 60.362464719 112.09365337 586.74345191 59.643764013 112.08392884 586.74971062 60.36066082 111.1691375 
586.74422323 59.643209807 109.75924483 586.74971062 60.36066082 110.22910083 587.27382506 60.343133846 107.96582949 
587.43899605 59.998138641 112.92886058 587.28244895 59.663929191 107.98009287 586.74971062 60.36066082 108.3490275 
586.91854831 59.568622414 112.93349256 586.91280395 60.430253237 112.93797213 586.74104697 59.64550835 110.22613596 
586.74288022 59.644176419 109.28701882 586.74362402 60.356359871 108.80755782 587.14778174 60.413378227 108.63942808 
587.13405145 59.581967454 109.0540418 587.123642 59.578771255 108.63054248 587.40841002 59.838996101 108.83791902 
587.41129789 59.846523472 109.27756883 587.129353 59.580489809 109.98386094 587.36541703 60.243292816 109.05074208 
587.37629624 60.226102055 109.5358932 587.40177204 59.823081288 108.37486027 587.13138318 59.581121186 109.51651641 
587.13192859 59.581292649 110.4522293 587.14234346 59.584717761 110.90369653 587.41181625 59.847919838 110.2193012 
587.41108434 59.84595239 109.75254924 587.37749633 60.224092664 109.971231 587.36492152 60.244035409 110.45625791 
587.04900166 60.436256619 109.73080576 586.75259471 59.63735469 111.1485108 587.15067035 59.587665856 111.37922624 
587.41595666 59.85963956 111.12443133 587.41186655 59.848056114 111.55208299 586.75226208 59.63758184 111.62690901 
586.74792647 60.359416101 111.63581294 587.10628123 60.42594049 111.88575462 587.12273946 60.421492616 112.29312506 
587.3855421 60.209948305 111.26802543 587.40374674 60.172364652 112.12139278 587.40302854 60.174037337 112.5574285 
587.37456175 59.771036044 112.28301953 587.15464793 59.589141122 111.88278311 586.74793545 60.3594224 110.69579315 
586.77355603 60.376090587 112.5394173 586.7390584 59.646969571 108.33789067 587.13548082 60.417571486 110.89764566 
587.41150773 59.847086982 110.67576584 586.73568734 59.64948635 112.55235939 587.15749181 59.59022283 112.60830803 
587.28053962 59.662333715 112.94207095 586.91168111 60.430024155 107.97828932 587.439 59.999980368 107.98708565 
586.90647471 59.571078073 107.96870252 587.28050654 60.337693767 112.94509713 587.39209865 60.197432646 108.27268092 
587.10039647 59.572634175 108.26261015 587.07008204 59.566630057 112.26751529 587.1048674 60.426290778 112.65568962 
587.41578064 60.140881013 108.63375924 587.10259797 60.426842659 108.25090282 587.04165622 60.437019175 109.0468745 
587.39906646 59.817060236 112.66122912 586.71504284 60.333946727 109.79878213 587.03958133 60.437211984 110.47744714 
587.0863727 60.43041928 110.10456883 587.1134697 60.424082099 109.36880833 587.0746172 60.432612151 111.41663882 
587.40968496 60.157731514 110.88405876 587.38963452 60.202252179 111.69028955 587.41286935 59.850802491 111.91541103 
586.6569411 60.273918954 107.9358724 586.65884809 60.276290379 112.96869384 586.65585957 59.727441079 112.97681262 
586.65160119 59.732905886 107.94846001 587 60 107.644 585.0278721 66.716450815 108.49000403 
590.79720673 54.11942001 108.46536831 583.22469933 54.105332508 111.56824584 581.70975298 64.584025138 111.56021597 
590.78448572 65.88877473 108.49000403 580.63257603 57.092094909 111.56021597 587 53 108.49000403 
580.07124991 60.996203868 108.49000403 593.36742397 62.907905091 108.49000403 593.36742397 57.092094909 108.49000403 
592.27669091 55.400376858 111.57626381 588.9721279 53.283549185 111.56021597 588.96165472 66.719517151 111.56824584 
592.26970368 64.607626627 111.58140205 581.70975298 55.415974862 108.49000403 593.85774378 61.404047823 110.8398875 
593.85774378 58.595952177 110.8398875 585.0278721 66.716450815 111.56021597 581.70975298 64.584025138 108.49000403 
580.07124991 60.996203868 111.56021597 592.29032206 64.58393854 108.4692944 592.29866247 55.42570486 108.46306124 
590.79430673 54.117548435 111.56682928 590.76188811 65.903236215 111.57755126 585.03398143 53.28175834 111.57205583 
584.08115907 53.637581622 109.9204588 586.9936336 66.999997105 111.57205583 588.00810697 66.927028248 109.9204588 
588.97345256 53.283938282 108.48060166 583.21551428 65.88877473 108.49000403 587 53 111.56021597 
580.63257603 62.907905091 108.49000403 580.63257603 62.907905091 111.56021597 580.07124991 59.003796132 108.49000403 
580.07124991 59.003796132 111.56021597 580.63257603 57.092094909 108.49000403 583.21551428 65.88877473 111.56021597 
581.71986621 55.404329516 111.57147263 593.31816981 56.986574997 111.62625254 593.31816981 63.013425003 111.62625254 
593.85774378 61.404047823 109.2103325 593.85821051 58.598233778 109.21236508 592.77068852 56.0377842 110.01688937 
592.76965905 63.963714727 110.01733601 591.58733356 54.712621555 110.00757148 591.60801034 65.269368153 110.00264244 
589.87022005 66.384499735 109.95068363 585.0165187 53.286893272 108.39082667 587.01183565 66.999989994 108.39082667 
582.46049978 54.67149761 109.95590838 589.91780584 53.637106861 110.03388977 587.99620387 53.071249907 110.02676438 
582.41601194 65.290279145 110.02523129 581.11340004 56.212132406 110.0011388 581.11122642 63.784487518 110.02394586 
584.09209491 66.367423967 110.02676438 580.28354916 61.9721278 110.02363093 580.28316301 58.029187769 110.01568678 
580.00000004 60.000782252 110.02091987 586.00379613 53.071249907 110.02806491 583.2364642 54.097814107 108.32671722 
586.00379613 66.928750093 110.02806491 588.9721279 66.716450815 108.29815106 593.46533751 57.316828202 110.0259455 
593.46513265 62.68366536 110.02598513 593.87846511 58.701263031 107.954618 593.87359943 61.324247312 107.98492509 
593.86799528 58.646988231 112.09781057 593.86793006 61.353342803 112.09751341 582.26693514 57.838481706 113.28422 
582.26693514 62.161518294 113.28422 585.50653885 54.930016623 113.28422 585.53406821 64.992505207 113.28422 
590.00273858 55.56926354 113.28422 590.04702484 64.761220451 113.28422 592.20933454 60.537942275 113.28422 
592.01104979 57.836480357 113.28422 592.57817417 59.160190534 113.28422 590.94497318 59.313746484 113.28422 
590.60853889 60.789251292 113.28422 589.60069914 59.877278669 113.28422 589.45950148 61.089368151 113.28422 
587.80556007 59.962722016 113.28422 587.75147496 59.482095063 113.28422 587.7758391 60.437410317 113.28422 
589.85693031 58.637387533 113.28422 588.27037367 60.17388308 113.28422 588.29958982 59.585475158 113.28422 
588.06754659 59.007641878 113.28422 590.08257326 62.126052053 113.28422 588.92210078 61.928524798 113.28422 
588.22700349 60.751852831 113.28422 587.73172573 60.944796722 113.28422 587.36659295 59.057945019 113.28422 
587.76015748 58.437509212 113.28422 587.02308664 58.409636666 113.28422 587.41409767 57.769392649 113.28422 
586.61413574 57.775452284 113.28422 586.27906581 58.435847801 113.28422 585.76897279 57.80526682 113.28422 
585.45607469 58.733948567 113.28422 587.07165915 56.932215983 113.28422 588.22413402 57.792313227 113.28422 
584.81868806 57.860727878 113.28422 584.39026946 58.776240819 113.28422 585.07806994 59.540696714 113.28422 
586.32519792 60.262310807 113.28422 586.50235776 60.735645 113.28422 585.91388099 60.653685035 113.28422 
586.22849908 61.270531704 113.28422 585.45414731 61.16519359 113.28422 585.83101033 61.918746719 113.28422 
586.66095132 61.922527719 113.28422 584.13421431 59.884880747 113.28422 584.95568152 61.874663967 113.28422 
586.34640327 59.685244403 113.28422 586.22308758 62.750848025 113.28422 587.18376977 62.695935052 113.28422 
586.73346253 59.317104806 113.28422 585.27308295 56.944117497 113.28422 584.22899758 56.736388821 113.28422 
[...]
CELL_DATA 2315
FIELD FieldData 2
mean 1 2315 double
2.2938887745e-06 2.2064931184e-06 1.5633034915e-06 1.4946368442e-06 1.8647690542e-06 1.5087020052e-06 1.15840335e-06 1.363066258e-06 1.5838005118e-06 
1.6053649416e-06 1.2437093039e-06 1.5502245378e-06 2.4345092813e-06 1.8707856012e-06 1.3579395768e-06 2.2509855528e-06 1.1436918969e-06 1.9832039523e-06 
1.9179125386e-06 1.2781596182e-06 3.6268606664e-06 3.2869842386e-06 1.302336172e-06 1.0976237335e-06 1.197964009e-06 3.2767157395e-06 1.9579125133e-06 
1.6153893425e-06 1.4915346504e-06 1.2638280706e-06 1.2487827772e-06 1.7216303699e-06 2.1384164287e-06 1.323146898e-06 1.6027334858e-06 2.5356019125e-06 
1.0508054619e-06 1.9926407765e-06 1.9052831134e-06 1.4390276773e-06 2.3386611975e-06 2.3902804455e-06 1.626017724e-06 1.9798134167e-06 1.3311458819e-06 
1.8720454709e-06 1.2397782887e-06 1.5418382625e-06 1.1810855554e-06 1.113687058e-06 1.7808994884e-06 2.3502122181e-06 2.5871279638e-06 1.1222391368e-06 
1.5024715205e-06 1.4277693654e-06 3.221319516e-06 1.2720503027e-06 1.053533927e-06 1.3744940181e-06 1.2496825474e-06 1.5392773258e-06 1.2661669367e-06 
1.2910650456e-06 1.547570559e-06 2.1344404308e-06 1.4718103752e-06 1.4516015426e-06 1.5876451835e-06 1.0082764601e-06 1.7886250787e-06 1.5290573078e-06 
1.3275312602e-06 2.1595557797e-06 2.5430487858e-06 1.3015728827e-06 9.3061408138e-07 2.1866872323e-06 9.7449911143e-07 1.209229899e-06 2.374323053e-06 
1.2396866511e-06 1.285031406e-06 1.2219386305e-06 1.2255461104e-06 1.5510418985e-06 1.6806802097e-06 1.7712095434e-06 2.0355978722e-06 1.4361164975e-06 
2.0549386189e-06 1.5156126693e-06 1.8186072485e-06 1.5540771886e-06 1.6514417152e-06 1.5753874913e-06 1.650847262e-06 1.612690116e-06 1.8067416216e-06 
1.0780605027e-06 1.0608877767e-06 2.0720289717e-06 1.2969584419e-06 9.3843127599e-07 1.2231694963e-06 1.3330796487e-06 2.1197042464e-06 1.4643213423e-06 
1.912519121e-06 1.8537771397e-06 1.598222987e-06 1.6405623978e-06 2.0278838176e-06 1.2272016012e-06 1.108345835e-06 2.7724680317e-06 1.7908824262e-06 
2.267504434e-06 1.4473926156e-06 2.1733801693e-06 1.2165543201e-06 1.4079960807e-06 2.7376448939e-06 1.7560706242e-06 1.5707430674e-06 2.3974519606e-06 
1.5061572613e-06 1.1104658149e-06 1.2112683512e-06 1.8082180734e-06 1.3436947971e-06 1.6444354606e-06 1.4504917902e-06 1.4625666658e-06 1.8867789544e-06 
1.5092241993e-06 2.5210115567e-06 1.6642621642e-06 1.7381330129e-06 1.3255998865e-06 1.0305499587e-06 1.7326479296e-06 2.7544354648e-06 1.3839799427e-06 
1.6492446142e-06 1.0568703162e-06 9.7930738668e-07 1.5916371464e-06 1.6503155848e-06 2.3961345491e-06 1.1078377247e-06 2.7659331614e-06 1.6528986508e-06 
1.0891950551e-06 1.129279773e-06 1.9449701661e-06 2.2566551692e-06 1.1020484671e-06 8.5262941554e-07 1.1816628089e-06 1.3710381974e-06 1.6728019652e-06 
1.8863185946e-06 1.7742818434e-06 1.3847084049e-06 1.120601579e-06 1.4076390952e-06 1.9958355812e-06 8.8194065233e-07 2.7331519053e-06 1.8051853119e-06 
1.1963695455e-06 1.2243929574e-06 1.8818791385e-06 1.21049014e-06 1.5023821001e-06 1.4925323082e-06 1.9233116101e-06 1.5240027544e-06 1.0624849479e-06 
2.4904465475e-06 1.6342185563e-06 1.409362381e-06 3.0852959618e-06 2.4496559336e-06 1.2608790124e-06 1.4194066362e-06 1.4560741791e-06 1.3510560778e-06 
9.3601116433e-07 1.9647375793e-06 1.0659992626e-06 8.9589427707e-07 1.5220723296e-06 1.5426744732e-06 2.1955346523e-06 1.2170231058e-06 1.4072222806e-06 
3.0868429957e-06 1.8534814883e-06 2.2938401232e-06 1.3990124347e-06 1.0899050446e-06 2.3802319046e-06 1.3099274352e-06 2.0545571416e-06 1.4756484923e-06 
2.18733478e-06 1.6637448148e-06 1.1672877588e-06 1.027334785e-06 2.2369386816e-06 1.5171153508e-06 2.1482437754e-06 1.2414625501e-06 1.3022034523e-06 
1.8486996083e-06 1.4517937783e-06 1.0055449709e-06 1.3012997958e-06 2.8289093718e-06 1.4277325506e-06 1.6612039615e-06 1.4955611483e-06 8.1608518283e-07 
2.0968661731e-06 2.048302941e-06 1.5807382134e-06 9.5235162012e-07 2.0212617086e-06 1.9405022069e-06 3.6721867769e-06 1.1831527328e-06 1.378375643e-06 
1.2498556702e-06 2.0342072791e-06 1.4871194041e-06 2.1509247671e-06 1.3162371698e-06 2.6969011189e-06 1.5061509521e-06 2.3292110303e-06 6.8108620565e-07 
1.4878604051e-06 1.2164260475e-06 2.5225133513e-06 2.3036979034e-06 1.0590256194e-06 2.2830550132e-06 1.5391481277e-06 1.4700797604e-06 1.1988291368e-06 
1.2960184403e-06 1.3456919988e-06 1.5779142595e-06 1.4135946889e-06 1.2096020583e-06 1.4619136583e-06 2.1722178312e-06 2.128184681e-06 1.641054201e-06 
1.9922618332e-06 1.7816738259e-06 2.7195412048e-06 1.576004945e-06 1.6028523752e-06 1.2784674819e-06 1.2085381707e-06 3.744352638e-06 1.1366304702e-06 
2.7672180826e-06 1.3626509836e-06 1.6262774461e-06 1.3284641485e-06 1.1265633991e-06 1.3316195012e-06 1.3409953359e-06 1.4079542892e-06 1.5224923273e-06 
1.9793207331e-06 1.8750625625e-06 1.4927189873e-06 1.172188464e-06 1.6989803768e-06 9.9751937097e-07 1.9053529821e-06 1.2265151324e-06 1.5184801023e-06 
1.4026831296e-06 2.4053998917e-06 1.7898034822e-06 1.4642040535e-06 1.68983019e-06 2.2305794928e-06 1.4903697074e-06 1.4789954195e-06 2.3012394183e-06 
1.0611964273e-06 1.0594589762e-06 2.513396542e-06 2.4518486604e-06 1.5658276241e-06 1.6862880485e-06 1.3147502186e-06 2.3402904141e-06 2.2004618796e-06 
1.0777371747e-06 1.5516470259e-06 3.6616558695e-06 1.2391191853e-06 3.4196084613e-06 1.8649795909e-06 1.528240739e-06 1.7610762515e-06 1.4642512383e-06 
1.7717508182e-06 1.5610158784e-06 2.2355568127e-06 9.4371932053e-07 2.1286277469e-06 1.2855487211e-06 1.2509203021e-06 1.8648505261e-06 1.970880132e-06 
2.2837518679e-06 1.608386615e-06 1.3983837842e-06 2.9663778308e-06 1.4105011671e-06 1.9389338358e-06 2.7911824851e-06 1.7718803927e-06 1.459879228e-06 
1.8793998293e-06 2.5489603411e-06 1.518483999e-06 2.0263271371e-06 1.5445965792e-06 2.3632919956e-06 1.4434384902e-06 2.0597271981e-06 1.3898406133e-06 
1.5326466847e-06 1.8388735297e-06 1.8024947485e-06 2.0761223661e-06 1.772705905e-06 1.7231085414e-06 1.0688336689e-06 1.4212721433e-06 1.3243186358e-06 
2.2190994882e-06 2.528388241e-06 1.3204988734e-06 1.0243538799e-06 2.0352049123e-06 1.6420362362e-06 3.8347663512e-06 1.1602471074e-06 1.6844426039e-06 
1.6558610701e-06 2.4159081307e-06 1.41463812e-06 1.1178937284e-06 3.0546366314e-06 1.1857648548e-06 1.1649496865e-06 1.7083602623e-06 1.5179180681e-06 
1.3456698754e-06 1.7938715791e-06 1.9555347768e-06 1.152152169e-06 1.9755758471e-06 1.992824398e-06 2.1533456366e-06 1.5543711064e-06 1.535924692e-06 
1.8603875066e-06 1.5029489878e-06 1.3133577978e-06 1.4444365563e-06 1.243853987e-06 2.2544665921e-06 1.5555206669e-06 2.1176755373e-06 1.7877619291e-06 
9.7636019587e-07 1.4595259896e-06 3.3654497625e-06 9.6391884002e-07 1.0654760351e-06 2.2793906551e-06 1.3616759195e-06 1.2723445517e-06 1.1311907756e-06 
1.5339028654e-06 2.4910700434e-06 1.5975780241e-06 1.0657676171e-06 1.3453630238e-06 2.5803158039e-06 1.4821821997e-06 1.6166181927e-06 1.0951040864e-06 
1.7089688289e-06 2.4674791604e-06 1.4962209388e-06 1.1957531183e-06 1.8229652293e-06 1.439411923e-06 1.7520013299e-06 1.1242438916e-06 2.0409276187e-06 
1.1996802162e-06 1.2145511587e-06 1.7078477844e-06 1.5413003276e-06 1.1605257749e-06 2.2668790513e-06 3.8511872007e-06 1.650052948e-06 1.0505455977e-06 
1.7704373606e-06 1.992374857e-06 1.2216928173e-06 1.2506348124e-06 8.5597553203e-07 1.9469746657e-06 1.6880125009e-06 1.579260056e-06 1.3523199693e-06 
1.7921279164e-06 1.5589264374e-06 2.4763657272e-06 3.1355823597e-06 3.5251671374e-06 1.4936810669e-06 2.9389915245e-06 1.9297406862e-06 1.9536626502e-06 
1.8800216994e-06 1.3086481774e-06 1.1365968582e-06 1.8048983979e-06 7.8085195806e-07 1.5430951383e-06 1.1864727017e-06 2.0149983221e-06 1.404071756e-06 
1.538339971e-06 2.6719651713e-06 1.7784643403e-06 2.0967177355e-06 1.8712998134e-06 1.6186390421e-06 2.9391375865e-06 1.3873444622e-06 1.7884898063e-06 
1.5332927836e-06 1.6135193314e-06 2.1965648814e-06 2.5367876883e-06 1.4784428432e-06 1.2210457674e-06 1.7101602616e-06 3.5523220997e-06 1.6700288342e-06 
1.4548921555e-06 1.4592331999e-06 1.8663496505e-06 1.988879674e-06 1.3486354485e-06 2.1512858537e-06 1.7244482445e-06 1.3017590467e-06 1.5198722854e-06 
2.9072037164e-06 1.2920158111e-06 1.7389805578e-06 2.7397126594e-06 1.7354210691e-06 9.409308889e-07 1.0695821893e-06 1.3318353521e-06 2.058743829e-06 
1.6455326643e-06 3.1225001858e-06 1.2428375078e-06 2.1672089292e-06 2.4509981004e-06 1.3110387333e-06 1.7586189181e-06 1.696194934e-06 1.6559432623e-06 
1.7846793719e-06 8.3381829735e-07 3.5920172485e-06 1.1152318633e-06 2.2592659767e-06 1.481780694e-06 2.0166510294e-06 1.7698966516e-06 1.6060104577e-06 
9.8228821074e-07 2.6255425414e-06 1.4847864846e-06 2.5165148849e-06 1.6540627973e-06 1.9686335949e-06 2.5356337593e-06 1.4076215419e-06 8.0009924527e-07 
1.6094915858e-06 1.4430107156e-06 1.7720990744e-06 2.1195779243e-06 1.4890926226e-06 1.6504727688e-06 1.6105250766e-06 1.332609849e-06 1.3071848962e-06 
1.6832545777e-06 1.3402303718e-06 2.0197732749e-06 2.1904571108e-06 1.0804441539e-06 3.0620133807e-06 1.4891222584e-06 1.4547224044e-06 1.5682020708e-06 
1.3082142159e-06 1.6951301544e-06 1.0993218055e-06 2.0950100105e-06 1.7553156548e-06 1.587311211e-06 1.4447141021e-06 2.2192532527e-06 1.3676302596e-06 
1.0005569326e-06 1.0521371108e-06 1.1806586025e-06 3.920067824e-06 1.8000992775e-06 1.63385462e-06 1.3342942808e-06 1.6351403272e-06 1.4318241503e-06 
1.6604162251e-06 1.1694900488e-06 2.3176904128e-06 1.8735513942e-06 3.0887553121e-06 2.1800410907e-06 1.34300414e-06 1.7664806201e-06 1.5878385016e-06 
2.5206414588e-06 1.8928367511e-06 1.683335765e-06 1.6359118016e-06 1.3663272546e-06 1.6736204464e-06 1.721471074e-06 2.1242613831e-06 2.0028082384e-06 
1.4790112321e-06 2.3122577381e-06 1.6803858079e-06 1.7822029856e-06 1.6827899008e-06 1.7933992308e-06 1.1400480581e-06 1.2197585197e-06 1.1147795256e-06 
1.3886985275e-06 2.538975481e-06 1.8950219495e-06 1.4216157634e-06 1.3865680116e-06 1.8916886675e-06 1.1714510781e-06 1.1379715795e-06 1.1196496997e-06 
2.2163737112e-06 1.251794277e-06 2.1893300441e-06 1.1511983275e-06 1.8907584919e-06 1.2166977746e-06 1.5093294013e-06 2.860047648e-06 1.6837464652e-06 
7.4908554929e-07 8.4509778032e-07 2.3985768054e-06 1.970054205e-06 1.110169336e-06 1.1868454472e-06 1.1008390162e-06 1.8224786836e-06 2.2750420399e-06 
1.4590564555e-06 1.2161864662e-06 8.3821179581e-07 1.5795135706e-06 1.5506433616e-06 8.2901318655e-07 3.014877535e-06 7.9829131239e-07 8.6733290417e-07 
1.2775377562e-06 9.1504674081e-07 1.4796863551e-06 1.8157316798e-06 3.1802013788e-06 1.1141045645e-06 1.83695587e-06 2.1266020024e-06 1.5261286608e-06 
1.0734151079e-06 2.3427843423e-06 1.3719316665e-06 2.1786949381e-06 1.4452224608e-06 3.1363231609e-06 2.0069456047e-06 1.1311442251e-06 3.0716054984e-06 
1.6919169549e-06 1.1161624897e-06 1.5835613705e-06 2.6929138454e-06 1.1994093144e-06 8.7435753623e-07 1.1687075436e-06 2.1812837433e-06 1.3114930548e-06 
1.2644232632e-06 1.3886138126e-06 1.241887142e-06 1.2249927939e-06 1.4735398963e-06 1.2744326697e-06 2.273920825e-06 1.6473404083e-06 1.4821716324e-06 
1.4324788315e-06 1.7025099787e-06 1.7429005594e-06 1.3485518222e-06 2.3116291517e-06 1.6200863236e-06 1.2260065038e-06 1.8145526337e-06 1.133487236e-06 
1.7977163572e-06 1.5851238926e-06 2.2125201974e-06 2.7955385026e-06 3.1065432693e-06 8.8597161854e-07 1.2568382584e-06 1.8088992108e-06 1.0493312918e-06 
1.8665642972e-06 1.3740867539e-06 1.1798718603e-06 1.1438910791e-06 1.8053257609e-06 1.2748773382e-06 1.2884022433e-06 1.4783129202e-06 1.2491712148e-06 
1.1264623547e-06 1.8354533319e-06 1.1192888636e-06 2.0243263867e-06 1.2519883021e-06 1.164436328e-06 8.5039690211e-07 1.4880984192e-06 1.2573554339e-06 
1.6747862816e-06 1.2825874187e-06 1.9512784816e-06 1.564492593e-06 1.2773522743e-06 1.57890393e-06 1.768808811e-06 9.6810922451e-07 2.0103746242e-06 
1.8188774668e-06 1.1087369559e-06 2.3676478367e-06 1.2080612082e-06 3.0488962856e-06 1.4341482615e-06 1.1554991963e-06 2.0982486201e-06 1.0632771545e-06 
1.3226640449e-06 1.7665783416e-06 1.8401325021e-06 2.372229941e-06 1.768882423e-06 1.5403675311e-06 1.7165919793e-06 1.1431342849e-06 1.7449923837e-06 
1.5154108191e-06 1.4612185683e-06 3.0038670021e-06 1.803515323e-06 2.2644368474e-06 1.2930719608e-06 1.1326593295e-06 2.7948457693e-06 2.2549093703e-06 
9.8662624056e-07 2.1578969021e-06 1.6897714314e-06 3.0754015674e-06 2.4782126477e-06 1.4859694763e-06 1.2482647015e-06 9.6699839005e-07 1.8105867812e-06 
1.0719920797e-06 1.5563723864e-06 1.6518527189e-06 1.430900009e-06 1.725600829e-06 9.2232933978e-07 2.1337043887e-06 1.1278308264e-06 1.5312793287e-06 
9.5505251317e-07 1.1884297784e-06 1.7953282798e-06 1.1284444277e-06 1.3667823478e-06 1.5431818124e-06 1.2265123696e-06 2.253216563e-06 1.3606643834e-06 
1.0493726844e-06 1.2700322769e-06 1.4197604791e-06 1.7740587573e-06 1.652653573e-06 1.1417848568e-06 1.6429788159e-06 1.679659779e-06 1.767973812e-06 
1.2797317749e-06 2.2803358903e-06 2.2767078719e-06 1.7778744192e-06 1.6275115593e-06 1.3479942366e-06 1.2142773938e-06 2.6060218086e-06 2.1585350452e-06 
1.937791015e-06 1.7148562753e-06 1.6691962472e-06 1.2296006713e-06 9.285696272e-07 1.3768483782e-06 1.3626448281e-06 1.4609823077e-06 1.5172562683e-06 
1.407544045e-06 1.1394867877e-06 2.5895015352e-06 2.6493204609e-06 1.2222804608e-06 1.7038318951e-06 9.6653911716e-07 2.1346378476e-06 1.3072652826e-06 
1.4621148385e-06 1.5450151743e-06 1.7297481295e-06 2.1258979484e-06 1.4786667602e-06 1.4439675499e-06 1.8213673172e-06 1.4876264835e-06 2.1776993276e-06 
2.4074420585e-06 1.2424117446e-06 1.3046431412e-06 2.4538180474e-06 2.0565861031e-06 1.3845061342e-06 1.6528814455e-06 1.6169320199e-06 1.9459181434e-06 
1.4944358886e-06 1.8948457652e-06 9.2636435628e-07 9.267116084e-07 9.8407969671e-07 2.1146611124e-06 2.4130016984e-06 2.206571577e-06 1.6522316328e-06 
1.1773377667e-06 1.7659049285e-06 2.1166128688e-06 2.0183946111e-06 1.5915805197e-06 1.4291727251e-06 9.1678717218e-07 1.526847972e-06 9.5024754882e-07 
1.5041727769e-06 2.1160465874e-06 2.6145328572e-06 1.8403964766e-06 1.9454465177e-06 2.0659641908e-06 1.4459763451e-06 2.6336334482e-06 1.2791662417e-06 
1.6396977034e-06 3.5405148028e-06 2.4225277311e-06 1.1158065231e-06 1.8390408514e-06 7.6568285366e-07 1.7392476349e-06 2.0422471592e-06 1.7249700513e-06 
1.946465297e-06 1.6993646227e-06 1.3761722167e-06 1.7448144035e-06 1.2387187135e-06 3.2067192504e-06 1.6740403569e-06 9.056193398e-07 1.8044243283e-06 
1.8193589162e-06 1.7655469668e-06 1.459848176e-06 9.7308545701e-07 1.1677307838e-06 1.4450968765e-06 1.8059691331e-06 1.3015648813e-06 1.6185439882e-06 
1.7510839797e-06 1.7735840081e-06 1.6094431929e-06 1.2059528364e-06 2.0486655333e-06 2.1612565542e-06 2.7942045378e-06 1.712232483e-06 1.445490374e-06 
2.5646544035e-06 1.9753792741e-06 1.7136082787e-06 1.4465673369e-06 2.4776309809e-06 1.4796083047e-06 2.0631922405e-06 9.6014630424e-07 1.2916833457e-06 
1.6851289317e-06 1.4376990837e-06 1.3443814497e-06 1.6893877267e-06 2.9459662108e-06 1.499523993e-06 2.2506398195e-06 1.6034444419e-06 1.5177470299e-06 
1.5401788719e-06 1.6559968863e-06 2.7583021412e-06 1.9221325444e-06 2.5801834754e-06 2.0035659245e-06 1.5981095086e-06 1.6074865674e-06 2.9065317912e-06 
5.0787746311e-07 1.6405748757e-06 1.7837306449e-06 1.4396788569e-06 2.1637102736e-06 1.2002201298e-06 3.4419941052e-06 1.3789358967e-06 2.2510352666e-06 
1.1459896055e-06 2.0707118033e-06 8.7717540449e-07 1.948295074e-06 1.710860656e-06 1.4985218025e-06 2.9041021122e-06 2.0442945255e-06 1.2090183348e-06 
1.2755079235e-06 1.7033954695e-06 1.6524295761e-06 3.251272935e-06 1.2672806284e-06 1.3660150759e-06 1.6352401762e-06 3.4237409355e-06 2.0116571556e-06 
1.6218741661e-06 1.6579591772e-06 2.3817024479e-06 1.5987902736e-06 9.3992268995e-07 1.3717621314e-06 1.8564748458e-06 1.0221586381e-06 1.5393588845e-06 
2.5061768881e-06 1.6474631803e-06 2.8258927337e-06 1.6221175522e-06 1.4137747574e-06 2.9324443482e-06 1.4704629851e-06 1.2933360376e-06 1.7188433341e-06 
3.4865775938e-06 1.6880214912e-06 2.137288792e-06 1.3094182404e-06 2.142610087e-06 1.849466072e-06 1.4299433298e-06 2.0288207121e-06 1.8631180914e-06 
7.6766836561e-07 1.0545500224e-06 1.5870329519e-06 2.151191107e-06 1.2938796355e-06 1.6944777366e-06 2.3345139308e-06 9.1753404344e-07 1.7831572261e-06 
2.4745534666e-06 1.9500479814e-06 1.3501671944e-06 1.6252527673e-06 3.2771520204e-06 2.1897897457e-06 1.3218407957e-06 1.5214845965e-06 1.2415797151e-06 
1.2338271476e-06 1.2657112868e-06 2.4566865629e-06 1.0202588653e-06 2.3114300623e-06 2.2436957175e-06 1.7564611882e-06 1.177675487e-06 1.4103353467e-06 
1.4314043652e-06 1.4668371002e-06 1.8691467435e-06 1.9108894757e-06 1.3076063735e-06 1.3176127426e-06 1.569810162e-06 1.6040199193e-06 1.2927526311e-06 
2.5439248041e-06 1.7818208684e-06 2.4993135674e-06 1.9492010748e-06 9.1383624745e-07 1.9379968799e-06 2.154806087e-06 2.5970269106e-06 1.829308116e-06 
1.4642616691e-06 1.4716619874e-06 1.1898050094e-06 1.3419502555e-06 3.1263922989e-06 8.136644011e-07 1.7136380715e-06 1.4803627305e-06 8.96603371e-07 
1.5697660601e-06 3.3440637417e-06 3.3609705918e-06 1.3381332482e-06 5.8711590578e-06 1.6027227137e-06 1.6442679905e-06 2.1708867351e-06 3.9492774516e-06 
1.2679157998e-06 1.9074920826e-06 3.3095285024e-06 1.3951444134e-06 9.0946879349e-07 2.9481557676e-06 1.725559418e-06 9.3344673163e-07 2.7292010657e-06 
1.8785333828e-06 1.1696600116e-06 2.3405258386e-06 1.3232166047e-06 2.4825932219e-06 2.2844372558e-06 1.1774196989e-06 2.5559622564e-06 1.7911437816e-06 
1.3522338017e-06 2.5897629434e-06 1.7786135383e-06 2.9885310433e-06 1.5461368071e-06 1.7716259871e-06 9.3788303143e-07 1.3926752024e-06 1.1853975385e-06 
1.512798825e-06 1.5983801168e-06 1.3131582338e-06 1.4131150565e-06 1.4935549476e-06 1.1035940724e-06 2.1835583906e-06 1.3612918831e-06 2.4756303179e-06 
2.2157949963e-06 1.4963711159e-06 1.2389173935e-06 2.2136204558e-06 1.7453597182e-06 2.4541377168e-06 1.2716661915e-06 8.8749048249e-07 1.9040771853e-06 
1.3259527566e-06 2.0347301091e-06 1.3519356098e-06 3.0174056837e-06 1.3620364235e-06 3.4602285957e-06 1.3340086166e-06 2.619143693e-06 2.833730312e-06 
1.2596269453e-06 1.1948645873e-06 2.5065241045e-06 2.1514713438e-06 1.7159571405e-06 2.7740305008e-06 2.0216690778e-06 1.6520721249e-06 1.5812585637e-06 
1.6410660256e-06 1.4805502784e-06 1.6320681988e-06 1.1789980235e-06 1.3168743674e-06 2.2931949061e-06 1.8784693569e-06 1.0514947207e-06 2.5845417024e-06 
1.7989807024e-06 1.6188559667e-06 4.1731832646e-06 9.8865552856e-07 1.7600779703e-06 1.3362251898e-06 2.0008700805e-06 2.7359923416e-06 1.3184947964e-06 
2.0485636432e-06 1.6252537727e-06 9.4471568999e-07 1.5121103042e-06 1.2261372275e-06 1.7321547411e-06 1.2467295933e-06 1.8495595015e-06 1.1674739441e-06 
1.6979178821e-06 1.3132508189e-06 1.4983644951e-06 4.5981829999e-06 1.1187550589e-06 1.4974566074e-06 1.4864955426e-06 2.0104078272e-06 1.4065969614e-06 
2.000105826e-06 1.2271477026e-06 1.1616051738e-06 1.5377585255e-06 7.1834921998e-07 1.3844262738e-06 5.922659594e-06 1.2298530624e-06 1.1400066889e-06 
1.2092352718e-06 1.6738038858e-06 1.9665360599e-06 1.276546772e-06 2.3730462587e-06 2.0571419152e-06 2.5885373943e-06 1.843471568e-06 1.337702633e-06 
1.4840626145e-06 1.6985051486e-06 1.2617888007e-06 1.3450631347e-06 1.2132174301e-06 2.2821603179e-06 1.4958719525e-06 1.2704178594e-06 1.2041699126e-06 
3.4479555534e-06 1.492535894e-06 2.5351317088e-06 2.4068900947e-06 2.2823026588e-06 1.4643137308e-06 2.658890607e-06 1.0216387009e-06 3.0854369945e-06 
3.2826813789e-06 4.2045135323e-06 2.0901479702e-06 1.6793179935e-06 2.0699235598e-06 1.3077690085e-06 2.7904646739e-06 2.0067253638e-06 1.7251277338e-06 
1.4808674016e-06 1.0469938128e-06 1.6609238865e-06 2.5614970351e-06 1.1764430722e-06 1.5263768692e-06 1.2186692937e-06 8.6179663007e-07 5.5249793486e-07 
2.6273047085e-06 1.8111079361e-06 1.1556008056e-06 3.2379727457e-06 9.7756447008e-07 1.8691596673e-06 5.9823276678e-06 1.5007924045e-06 9.8278729374e-07 